<?xml version="1.0"?>
<VTKFile type="UnstructuredGrid"  version="0.1"  >
<UnstructuredGrid>
<Piece  NumberOfPoints="17003" NumberOfCells="33542">
<Points>
<DataArray  type="Float64"  NumberOfComponents="3"  format="ascii">1 0 0  1.110223024625157e-16 1 0  -1 1.224646799147353e-16 0  -2.220446049250313e-16 -1 0  10 0 0  1.110223024625157e-15 10 0  -10 1.224646799147353e-15 0  -2.220446049250313e-15 -10 0  1 6 0  0 7 0  -0.9999999999999999 6 0  0 5 0  1 -6 0  0 -5 0  -1 -6 0  0 -7 0  1.15 0 0  1.3 0 0  1.45 0 0  1.6 0 0  1.75 0 0  1.9 0 0  2.05 0 0  2.2 0 0  2.35 0 0  2.5 0 0  2.65 0 0  2.8 0 0  2.95 0 0  3.1 0 0  3.25 0 0  3.4 0 0  3.55 0 0  3.7 0 0  3.85 0 0  4 0 0  4.15 0 0  4.3 0 0  4.45 0 0  4.6 0 0  4.75 0 0  4.9 0 0  5.05 0 0  5.2 0 0  5.35 0 0  5.5 0 0  5.65 0 0  5.8 0 0  5.95 0 0  6.1 0 0  6.25 0 0  6.4 0 0  6.55 0 0  6.7 0 0  6.85 0 0  7 0 0  7.15 0 0  7.3 0 0  7.45 0 0  7.6 0 0  7.75 0 0  7.9 0 0  8.050000000000001 0 0  8.199999999999999 0 0  8.35 0 0  8.5 0 0  8.65 0 0  8.800000000000001 0 0  8.949999999999999 0 0  9.1 0 0  9.25 0 0  9.4 0 0  9.550000000000001 0 0  9.699999999999999 0 0  9.85 0 0  -1.15 1.408343819019456e-16 0  -1.3 1.592040838891559e-16 0  -1.45 1.775737858763662e-16 0  -1.6 1.959434878635765e-16 0  -1.75 2.143131898507868e-16 0  -1.9 2.326828918379971e-16 0  -2.05 2.510525938252074e-16 0  -2.2 2.694222958124177e-16 0  -2.35 2.87791997799628e-16 0  -2.5 3.061616997868383e-16 0  -2.65 3.245314017740486e-16 0  -2.8 3.429011037612589e-16 0  -2.95 3.612708057484692e-16 0  -3.1 3.796405077356795e-16 0  -3.25 3.980102097228898e-16 0  -3.4 4.163799117101001e-16 0  -3.55 4.347496136973104e-16 0  -3.7 4.531193156845207e-16 0  -3.85 4.71489017671731e-16 0  -4 4.898587196589413e-16 0  -4.15 5.082284216461516e-16 0  -4.3 5.265981236333618e-16 0  -4.45 5.449678256205722e-16 0  -4.6 5.633375276077825e-16 0  -4.75 5.817072295949928e-16 0  -4.9 6.000769315822031e-16 0  -5.05 6.184466335694134e-16 0  -5.2 6.368163355566237e-16 0  -5.35 6.55186037543834e-16 0  -5.5 6.735557395310443e-16 0  -5.65 6.919254415182546e-16 0  -5.8 7.102951435054649e-16 0  -5.95 7.286648454926752e-16 0  -6.1 7.470345474798854e-16 0  -6.25 7.654042494670958e-16 0  -6.4 7.837739514543061e-16 0  -6.55 8.021436534415163e-16 0  -6.7 8.205133554287267e-16 0  -6.85 8.388830574159369e-16 0  -7 8.572527594031472e-16 0  -7.15 8.756224613903577e-16 0  -7.3 8.939921633775679e-16 0  -7.45 9.123618653647781e-16 0  -7.6 9.307315673519883e-16 0  -7.75 9.491012693391988e-16 0  -7.9 9.67470971326409e-16 0  -8.050000000000001 9.858406733136192e-16 0  -8.199999999999999 1.00421037530083e-15 0  -8.35 1.02258007728804e-15 0  -8.5 1.04094977927525e-15 0  -8.65 1.059319481262461e-15 0  -8.800000000000001 1.077689183249671e-15 0  -8.949999999999999 1.096058885236881e-15 0  -9.1 1.114428587224091e-15 0  -9.25 1.132798289211302e-15 0  -9.4 1.151167991198512e-15 0  -9.550000000000001 1.169537693185722e-15 0  -9.699999999999999 1.187907395172933e-15 0  -9.85 1.206277097160143e-15 0  0.9898214418809328 0.1423148382732849 0  0.9594929736144975 0.2817325568414294 0  0.9096319953545183 0.4154150130018865 0  0.841253532831181 0.540640817455598 0  0.755749574354258 0.6548607339452853 0  0.6548607339452852 0.7557495743542582 0  0.5406408174555974 0.8412535328311812 0  0.4154150130018855 0.9096319953545188 0  0.2817325568414297 0.9594929736144974 0  0.1423148382732853 0.9898214418809327 0  -0.1423148382732849 0.9898214418809328 0  -0.2817325568414294 0.9594929736144975 0  -0.415415013001886 0.9096319953545186 0  -0.5406408174555971 0.8412535328311814 0  -0.6548607339452852 0.7557495743542582 0  -0.7557495743542584 0.6548607339452849 0  -0.8412535328311812 0.5406408174555974 0  -0.9096319953545188 0.4154150130018856 0  -0.9594929736144976 0.2817325568414289 0  -0.9898214418809327 0.1423148382732853 0  -0.9898214418809328 -0.142314838273285 0  -0.9594929736144975 -0.2817325568414294 0  -0.9096319953545184 -0.4154150130018862 0  -0.8412535328311813 -0.5406408174555973 0  -0.7557495743542587 -0.6548607339452845 0  -0.6548607339452861 -0.7557495743542574 0  -0.540640817455599 -0.8412535328311803 0  -0.4154150130018883 -0.9096319953545176 0  -0.2817325568414313 -0.9594929736144969 0  -0.1423148382732862 -0.9898214418809326 0  0.142314838273285 -0.9898214418809328 0  0.2817325568414295 -0.9594929736144975 0  0.4154150130018862 -0.9096319953545184 0  0.5406408174555976 -0.8412535328311812 0  0.6548607339452847 -0.7557495743542586 0  0.7557495743542576 -0.6548607339452859 0  0.8412535328311803 -0.5406408174555989 0  0.9096319953545176 -0.4154150130018883 0  0.9594929736144969 -0.2817325568414313 0  0.9898214418809326 -0.142314838273286 0  9.998881018102734 0.1495940701526364 0  9.995524322835033 0.2991546616939819 0  9.989930665413148 0.448648303505148 0  9.982101297677351 0.5980415394503419 0  9.972037971811801 0.7473009358642397 0  9.95974293995239 0.8963930890343337 0  9.945218953682733 1.045284632676535 0  9.928469263418373 1.193942245402441 0  9.909497617679348 1.342332658176554 0  9.888308262251286 1.490422661761745 0  9.864905939235214 1.638179114151379 0  9.839295885986296 1.785568947986365 0  9.811483833941727 1.932559177955533 0  9.781476007338055 2.079116908177595 0  9.749279121818237 2.225209339563143 0  9.714900382928674 2.370803777154975 0  9.678347484506665 2.515867637445087 0  9.639628606958532 2.660368455666754 0  9.598752415428891 2.804273893060028 0  9.555728057861407 2.947551744109044 0  9.510565162951536 3.090169943749473 0  9.463273837991641 3.2320965745446 0  9.413864666609031 3.373299873828302 0  9.362348706397372 3.513748240813426 0  9.308737486442043 3.65341024366395 0  9.253043004739967 3.792254626529286 0  9.195277725514506 3.930250316539235 0  9.135454576426008 4.067366430758002 0  9.073586945678647 4.203572283095657 0  9.009688679024192 4.33883739117558 0  8.943774076663368 4.473131483156326 0  8.875857890045539 4.606424504506324 0  8.80595531856738 4.738686624729985 0  8.734082006171297 4.869888244043673 0  8.660254037844386 5.000000000000001 0  8.584487936018663 5.128992774059061 0  8.506800656873395 5.256837698105047 0  8.427209586540391 5.383506160906824 0  8.345732537213028 5.508969814521024 0  8.262387743159948 5.63320058063622 0  8.177193856644315 5.756170656856733 0  8.090169943749475 5.87785252292473 0  8.001335480112063 5.998218946879136 0  7.910710346563414 6.117242991150062 0  7.818314824680299 6.234898018587334 0  7.724169592245995 6.351157698421788 0  7.628295718622668 6.465996012157994 0  7.53071466003611 6.579387259397125 0  7.431448254773942 6.691306063588582 0  7.330518718298265 6.801727377709192 0  7.227948638273915 6.910626489868646 0  7.123760969513448 7.017979028839914 0  7.017979028839916 7.123760969513446 0  6.910626489868648 7.227948638273913 0  6.801727377709195 7.330518718298262 0  6.691306063588584 7.43144825477394 0  6.579387259397128 7.530714660036109 0  6.465996012158 7.628295718622661 0  6.351157698421787 7.724169592245996 0  6.234898018587337 7.818314824680296 0  6.117242991150067 7.91071034656341 0  5.998218946879136 8.001335480112065 0  5.877852522924733 8.090169943749473 0  5.75617065685674 8.17719385664431 0  5.63320058063622 8.262387743159948 0  5.508969814521026 8.345732537213026 0  5.383506160906828 8.427209586540389 0  5.256837698105046 8.506800656873395 0  5.128992774059063 8.584487936018659 0  5.000000000000004 8.660254037844384 0  4.869888244043672 8.734082006171297 0  4.738686624729988 8.80595531856738 0  4.606424504506327 8.875857890045539 0  4.473131483156325 8.943774076663368 0  4.338837391175582 9.00968867902419 0  4.203572283095659 9.073586945678647 0  4.067366430758001 9.13545457642601 0  3.930250316539238 9.195277725514506 0  3.79225462652928 9.253043004739968 0  3.653410243663949 9.308737486442043 0  3.513748240813428 9.362348706397372 0  3.373299873828296 9.413864666609033 0  3.232096574544599 9.463273837991643 0  3.090169943749475 9.510565162951535 0  2.947551744109038 9.555728057861408 0  2.804273893060026 9.598752415428891 0  2.660368455666753 9.639628606958532 0  2.515867637445081 9.678347484506666 0  2.370803777154974 9.714900382928676 0  2.225209339563146 9.749279121818235 0  2.07911690817759 9.781476007338057 0  1.932559177955532 9.811483833941727 0  1.785568947986369 9.839295885986296 0  1.638179114151373 9.864905939235216 0  1.490422661761743 9.888308262251286 0  1.342332658176557 9.909497617679348 0  1.193942245402448 9.928469263418373 0  1.045284632676533 9.945218953682733 0  0.8963930890343368 9.95974293995239 0  0.7473009358642473 9.972037971811801 0  0.5980415394503404 9.982101297677351 0  0.4486483035051511 9.989930665413146 0  0.2991546616939894 9.995524322835033 0  0.1495940701526439 9.998881018102734 0  -0.1495940701526314 9.998881018102734 0  -0.2991546616939856 9.995524322835033 0  -0.4486483035051474 9.989930665413148 0  -0.5980415394503369 9.982101297677351 0  -0.7473009358642436 9.972037971811801 0  -0.8963930890343331 9.95974293995239 0  -1.04528463267653 9.945218953682733 0  -1.193942245402444 9.928469263418373 0  -1.342332658176553 9.909497617679348 0  -1.490422661761739 9.888308262251286 0  -1.638179114151378 9.864905939235214 0  -1.785568947986365 9.839295885986296 0  -1.932559177955528 9.811483833941727 0  -2.079116908177594 9.781476007338055 0  -2.225209339563142 9.749279121818237 0  -2.37080377715497 9.714900382928676 0  -2.515867637445086 9.678347484506665 0  -2.66036845566675 9.639628606958533 0  -2.804273893060031 9.598752415428889 0  -2.947551744109043 9.555728057861407 0  -3.090169943749472 9.510565162951536 0  -3.232096574544604 9.46327383799164 0  -3.373299873828301 9.413864666609031 0  -3.513748240813425 9.362348706397373 0  -3.653410243663954 9.308737486442041 0  -3.792254626529285 9.253043004739967 0  -3.930250316539234 9.195277725514506 0  -4.067366430758006 9.135454576426007 0  -4.203572283095657 9.073586945678647 0  -4.33883739117558 9.009688679024192 0  -4.47313148315633 8.943774076663367 0  -4.606424504506324 8.875857890045539 0  -4.7386866
[...]
<PointData  Vectors="f_51"> 
<DataArray  type="Float64"  Name="f_51"  NumberOfComponents="3" format="ascii">1.1271968647119232e-03 -4.4830128895095086e-04 0.0000000000000000e+00  8.3969747461968378e-02 4.6061436291780299e-04 0.0000000000000000e+00  1.0648958259020774e-03 3.1256462107824063e-04 0.0000000000000000e+00  4.2008241450252837e-02 -2.2567167651812330e-04 0.0000000000000000e+00  2.2430619599019261e-05 1.1854970351344618e-05 0.0000000000000000e+00  -7.5934271091370825e-02 1.2872258762858797e-04 0.0000000000000000e+00  2.3231701551183725e-05 -1.1019619584415802e-05 0.0000000000000000e+00  -3.7916349165668890e-02 -1.0419706859832454e-06 0.0000000000000000e+00  -4.7361354445471976e-04 9.8602575694309774e-02 0.0000000000000000e+00  -1.2082093900571880e-01 2.5191736259757577e-04 0.0000000000000000e+00  -3.7908721491393654e-04 -9.4829961667564702e-02 0.0000000000000000e+00  9.8459873024302050e-02 1.2923103694324189e-04 0.0000000000000000e+00  1.0695730946405891e-04 -4.8350480636402633e-02 0.0000000000000000e+00  4.8316950094197314e-02 2.0820627143775195e-04 0.0000000000000000e+00  -4.5166605917031311e-04 4.6472778692147380e-02 0.0000000000000000e+00  -5.5047987595481095e-02 1.7492215565729810e-04 0.0000000000000000e+00  7.8988693535010611e-03 2.6141585230841933e-05 0.0000000000000000e+00  1.1428202704305966e-02 8.3469376208152626e-05 0.0000000000000000e+00  1.4298738818383221e-02 5.8140881268730038e-05 0.0000000000000000e+00  1.6144475041770859e-02 2.7520983742833342e-05 0.0000000000000000e+00  1.7657698557381689e-02 -5.6659755113984318e-06 0.0000000000000000e+00  1.8969148483123432e-02 -3.2409651497665292e-05 0.0000000000000000e+00  1.8744819858415970e-02 3.7198102565660519e-05 0.0000000000000000e+00  1.9155065564465126e-02 1.3511145118760734e-07 0.0000000000000000e+00  1.9488316289161461e-02 5.6324991307721433e-06 0.0000000000000000e+00  1.9296721910368516e-02 -4.1519887300840094e-06 0.0000000000000000e+00  1.9751144063401716e-02 2.1122073027722191e-06 0.0000000000000000e+00  1.9504051424016750e-02 -2.3904814227303586e-08 0.0000000000000000e+00  1.9576409716836090e-02 5.1200777474305165e-06 0.0000000000000000e+00  1.8790379252163827e-02 2.1165030924424291e-07 0.0000000000000000e+00  1.8396025684713064e-02 1.3140555498289270e-06 0.0000000000000000e+00  1.7881518597681213e-02 5.5443539020017361e-06 0.0000000000000000e+00  1.7149416983650852e-02 -1.1447989942423996e-05 0.0000000000000000e+00  1.6718701566298934e-02 1.0847998009486708e-05 0.0000000000000000e+00  1.6156180231019231e-02 -1.3001024784857241e-05 0.0000000000000000e+00  1.5847569079280817e-02 4.4548892877344471e-06 0.0000000000000000e+00  1.5216229230858079e-02 1.3033044826675050e-06 0.0000000000000000e+00  1.4633805199193968e-02 -2.9217799409407552e-06 0.0000000000000000e+00  1.4015563501707157e-02 7.1722525371138091e-06 0.0000000000000000e+00  1.3353854586102536e-02 -7.5671907775616388e-06 0.0000000000000000e+00  1.2913133022224408e-02 1.3813918118025323e-05 0.0000000000000000e+00  1.2258424525825129e-02 2.1722816643575579e-06 0.0000000000000000e+00  1.1438416282060947e-02 -1.2812655244261939e-05 0.0000000000000000e+00  1.0855555141499331e-02 -1.4055471695605545e-05 0.0000000000000000e+00  1.1197397767924985e-02 1.2077408857210117e-05 0.0000000000000000e+00  1.0735472716435171e-02 2.4217118213776555e-05 0.0000000000000000e+00  9.8001858558317487e-03 -1.1161156282764093e-05 0.0000000000000000e+00  8.9660163284706676e-03 -6.4100531810184875e-06 0.0000000000000000e+00  9.1000184016911696e-03 1.4417204253358777e-05 0.0000000000000000e+00  7.8696662412447056e-03 -3.0956316090155989e-05 0.0000000000000000e+00  8.0764520231225729e-03 5.6305302090862352e-05 0.0000000000000000e+00  7.1618529142585246e-03 -1.7633278667574627e-05 0.0000000000000000e+00  6.7841203319589033e-03 -1.6990770870168919e-06 0.0000000000000000e+00  6.3438258014442235e-03 7.2950576866453085e-06 0.0000000000000000e+00  5.8005626883057427e-03 -3.2051478560759581e-06 0.0000000000000000e+00  5.3460076556399233e-03 2.5567971466152113e-07 0.0000000000000000e+00  4.8771127757014938e-03 -7.1803503874553476e-06 0.0000000000000000e+00  4.6025446162924217e-03 -3.1660842137711658e-06 0.0000000000000000e+00  4.6476582492593942e-03 1.4715439543618427e-05 0.0000000000000000e+00  4.2986302575613901e-03 6.4808597036798711e-06 0.0000000000000000e+00  3.6023978349534699e-03 -5.0737702940790625e-06 0.0000000000000000e+00  3.3196108245734670e-03 1.9217051358609491e-07 0.0000000000000000e+00  3.0148353017418906e-03 4.7503880447342578e-06 0.0000000000000000e+00  2.7308851589168265e-03 -2.4714484008593014e-06 0.0000000000000000e+00  2.4682429480865245e-03 -8.2991995629355157e-06 0.0000000000000000e+00  2.2627939484812245e-03 -1.2302686805241059e-06 0.0000000000000000e+00  2.0412909685457422e-03 1.4481849947580550e-05 0.0000000000000000e+00  1.6857535351031102e-03 -1.3230590992705425e-05 0.0000000000000000e+00  1.4496890088912901e-03 4.1216536375344246e-06 0.0000000000000000e+00  1.1978290343568475e-03 -1.6977619992383041e-07 0.0000000000000000e+00  9.8569204982291211e-04 -1.2871788998271058e-06 0.0000000000000000e+00  7.7263604061967510e-04 -1.8654024922489803e-07 0.0000000000000000e+00  5.7352145879584497e-04 2.3782996806270950e-07 0.0000000000000000e+00  3.5752102211168794e-04 -5.1376010061109666e-06 0.0000000000000000e+00  1.9880573641439377e-04 -2.1013799889743100e-06 0.0000000000000000e+00  7.4627218517312657e-03 -6.0962519448415864e-05 0.0000000000000000e+00  1.0954526507500673e-02 1.1519003561410486e-05 0.0000000000000000e+00  1.4184275396880696e-02 -6.4207284394070211e-06 0.0000000000000000e+00  1.6482206384380360e-02 -9.3388368915610250e-06 0.0000000000000000e+00  1.8766494310220361e-02 7.6274304539633103e-05 0.0000000000000000e+00  1.8919141325456010e-02 -6.5840951333607302e-05 0.0000000000000000e+00  1.9066706857628846e-02 -1.7845949986497798e-05 0.0000000000000000e+00  2.0117578061980050e-02 4.2691291124562408e-06 0.0000000000000000e+00  1.9844927810072657e-02 -2.6917430846102432e-06 0.0000000000000000e+00  1.9703529136940640e-02 -1.3921899362779324e-06 0.0000000000000000e+00  1.9834101045575675e-02 2.0552665699829176e-06 0.0000000000000000e+00  1.9846347574260625e-02 1.2253762378355877e-06 0.0000000000000000e+00  1.9198774591980071e-02 4.9573621994590480e-08 0.0000000000000000e+00  1.9434422074318589e-02 -1.7184191161692270e-05 0.0000000000000000e+00  1.8555232201086340e-02 -1.1027920307888819e-05 0.0000000000000000e+00  1.7225567229773153e-02 2.1338178808998032e-05 0.0000000000000000e+00  1.7187031726790102e-02 -5.9579927682482192e-06 0.0000000000000000e+00  1.6730346709295289e-02 9.4684841505803103e-06 0.0000000000000000e+00  1.6598640493691280e-02 -2.6559734354983718e-05 0.0000000000000000e+00  1.5360141540612347e-02 3.5507842129020574e-05 0.0000000000000000e+00  1.4582168400623492e-02 4.0734986856489986e-05 0.0000000000000000e+00  1.4851768279844756e-02 -2.5370928134615695e-05 0.0000000000000000e+00  1.4129513197609167e-02 -2.1330849388079091e-06 0.0000000000000000e+00  1.2994121430114412e-02 1.9268747168928689e-05 0.0000000000000000e+00  1.2943880099117112e-02 -2.9779445399607378e-05 0.0000000000000000e+00  1.1330180369891035e-02 3.0921729928651340e-05 0.0000000000000000e+00  1.1792485527307063e-02 -1.8632750731627861e-05 0.0000000000000000e+00  1.1225740148736674e-02 7.9169744844701176e-06 0.0000000000000000e+00  1.0748445677661934e-02 3.5196090109396467e-06 0.0000000000000000e+00  1.0588327542255544e-02 -2.4339560940781209e-05 0.0000000000000000e+00  9.3705164723177203e-03 8.2789157014445497e-07 0.0000000000000000e+00  8.7801512651935198e-03 1.6770180415409331e-05 0.0000000000000000e+00  8.5129654738251865e-03 -8.9763346862621692e-06 0.0000000000000000e+00  8.0252322715995972e-03 -1.6563015214929057e-06 0.0000000000000000e+00  7.5940427632063771e-03 4.0872615514012636e-07 0.0000000000000000e+00  7.1654343929651674e-03 8.0529429103419290e-07 0.0000000000000000e+00  6.7626174825679789e-03 5.3240891299223954e-06 0.0000000000000000e+00  6.3391894961063351e-03 -1.0564922278942178e-05 0.0000000000000000e+00  5.8969038188296892e-03 3.2979269290164544e-06 0.0000000000000000e+00  5.8057833961430751e-03 -6.0239351431976214e-06 0.0000000000000000e+00  5.0430465904764011e-03 -6.6533436474342187e-06 0.0000000000000000e+00  4.7668130810760686e-03 1.4044532103224343e-05 0.0000000000000000e+00  4.4035353025131310e-03 -2.9567059220937705e-06 0.0000000000000000e+00  4.2292254922548641e-03 -3.7403298681891767e-06 0.0000000000000000e+00  3.7043025653235883e-03 8.2754127885900523e-06 0.0000000000000000e+00  3.4293807999666165e-03 -1.1370071278174358e-05 0.0000000000000000e+00  3.1569161740641182e-03 -9.5816532993572609e-06 0.0000000000000000e+00  2.6494468460166076e-03 1.3220706659056586e-06 0.0000000000000000e+00  2.4184742093193070e-03 1.6869238686650474e-06 0.0000000000000000e+00  2.1707266992164937e-03 7.3338671671871335e-06 0.0000000000000000e+00  1.8561927506604947e-03 7.0105993869452570e-06 0.0000000000000000e+00  1.6917442040165732e-03 -1.8542291582692378e-06 0.0000000000000000e+00  1.4218442432191941e-03 5.3597720792236641e-06 0.0000000000000000e+00  1.1893397798486095e-03 -3.6775352000584793e-06 0.0000000000000000e+00  9.7694932381174561e-04 -2.1434255890343896e-06 0.0000000000000000e+00  7.7215021805316958e-04 6.3831160721590760e-06 0.0000000000000000e+00  5.7113374145111332e-04 -9.3929433419835034e-06 0.0000000000000000e+00  3.7996188461883592e-04 4.9489785543042960e-06 0.0000000000000000e+00  1.9842878338891911e-04 5.4418087344949898e-06 0.0000000000000000e+00  1.1108769051418309e-03 -1.1769554226309690e-02 0.0000000000000000e+00  5.1160400180444683e-03 -1.9389414580277049e-02 0.0000000000000000e+00  1.2925539101929258e-02 -2.7434144179478596e-02 0.0000000000000000e+00  2.1882743740437274e-02 -3.4456525135044026e-02 0.0000000000000000e+00  3.2856564189938313e-02 -3.7947403725402729e-02 0.0000000000000000e+00  4.4681175742405377e-02 -3.8651336400466668e-02 0.0000000000000000e+00  5.6128784691699934e-02 -3.6401703397816003e-02 0.0000000000000000e+00  6.7229178724672684e-02 -3.1255016815483337e-02 0.0000000000000000e+00  7.6059868890637664e-02 -2.2069072708696402e-02 0.0000000000000000e+00  8.2181561682575302e-02 -1.2103103338979782e-02 0.0000000000000000e+00  8.1660462520829480e-02 1.1514523726355374e-02 0.0000000000000000e+00  7.6700470764886036e-02 2.2795454610823617e-02 0.0000000000000000e+00  6.7788139145779705e-02 3.1121092311751475e-02 0.0000000000000000e+00  5.7108232915988939e-02 3.6177954770383769e-02 0.0000000000000000e+00  4.4460527700327802e-02 3.9141959885927502e-02 0.0000000000000000e+00  3.3066994866634919e-02 3.8820739740162112e-02 0.0000000000000000e+00  2.2635234251620270e-02 3.3272197298439679e-02 0.0000000000000000e+00  1.2254930017638480e-02 2.7830750382750211e-02 0.0000000000000000e+00  5.5760422960514618e-03 2.0399554239781147e-02 0.0000000000000000e+00  1.2195987541404583e-03 1.1532441801181152e-02 0.0000000000000000e+00  5.6010557461968178e-04 -5.9756676489077249e-03 0.0000000000000000e+00  2.8299148521344019e-03 -9.7433215409001312e-03 0.0000000000000000e+00  6.3404065521170897e-03 -1.4114705416298228e-02 0.0000000000000000e+00  1.0513699312889592e-02 -1.6491928064577350e-02 0.0000000000000000e+00  1.6999080305104487e-02 -1.8461197164191420e-02 0.0000000000000000e+00  2.2548269140668948e-02 -1.9866502032264515e-02 0.0000000000000000e+00  2.8252942810525882e-02 -1.8316015228189150e-02 0.0000000000000000e+00  3.3903189182288740e-02 -1.5731878047958909e-02 0.0000000000000000e+00  3.8206497802235187e-02 -1.0966677917133847e-02 0.0000000000000000e+00  4.1032807111953361e-02 -5.8901898691493789e-03 0.0000000000000000e+00  4.1086184998108802e-02 6.0951933283256857e-03 0.0000000000000000e+00  3.8139929593473183e-02 1.1271379006976247e-02 0.0000000000000000e+00  3.3767388912995806e-02 1.5140073589183458e-02 0.0000000000000000e+00  2.8325378329695634e-02 1.8429290239732124e-02 0.0000000000000000e+00  2.2180521462909268e-02 1.9059987938148986e-02 0.0000000000000000e+00  1.6167546309614041e-02 1.9097457412074987e-02 0.0000000000000000e+00  1.0720799240591768e-02 1.6834868971644171e-02 0.0000000000000000e+00  6.3473113747204357e-03 1.3836728773500001e-02 0.0000000000000000e+00  2.6878179229845520e-03 9.1202742722486779e-03 0.0000000000000000e+00  3.8793245067339732e-04 5.8109500417055362e-03 0.0000000000000000e+00  -1.7653017022717974e-05 2.7922662800275119e-04 0.0000000000000000e+00  -1.9538088554182181e-05 4.5057774716603636e-04 0.0000000000000000e+00  -2.3945089683298960e-05 7.1300520664128628e-04 0.0000000000000000e+00  -7.0604605426552631e-05 9.0845975387358489e-04 0.0000000000000000e+00  -6.8438865623326217e-05 1.1747610795766583e-03 0.0000000000000000e+00  -1.4172118912420946e-04 1.4354442554610754e-03 0.0000000000000000e+00  -1.7073918422534493e-04 1.6455421194976907e-03 0.0000000000000000e+00  -2.2673210783168810e-04 1.8844345817870868e-03 0.0000000000000000e+00  -2.8531230981802076e-04 2.1205509354598495e-03 0.0000000000000000e+00  -3.5634514876413230e-04 2.3566325645622156e-03 0.0000000000000000e+00  -4.3006679054182352e-04 2.5963974286048784e-03 0.0000000000000000e+00  -5.1451560376099953e-04 2.8330130542159400e-03 0.0000000000000000e+00  -6.0376991382708875e-04 3.0768879731978625e-03 0.0000000000000000e+00  -7.0463605426053001e-04 3.3131642501301496e-03 0.0000000000000000e+00  -8.1437420764028613e-04 3.5429441176754190e-03 0.0000000000000000e+00  -9.1832536895741117e-04 3.7937996254548030e-03 0.0000000000000000e+00  -1.0515921836318197e-03 4.0348850777766109e-03 0.0000000000000000e+00  -1.1807928003820388e-03 4.2780405509604599e-03 0.0000000000000000e+00  -1.3292188199912477e-03 4.5114694285613528e-03 0.0000000000000000e+00  -1.4945843026712277e-03 4.7632561775340721e-03 0.0000000000000000e+00  -1.6023872918499377e-03 4.9750388070907816e-03 0.0000000000000000e+00  -1.7926784888113419e-03 5.2387927124172137e-03 0.0000000000000000e+00  -1.9635881288930937e-03 5.4804677404944420e-03 0.0000000000000000e+00  -2.1551224113133273e-03 5.7339979577242942e-03 0.0000000000000000e+00  -2.3493382007192137e-03 5.9799097258537402e-03 0.0000000000000000e+00  -2.5559882812255207e-03 6.2405372249310599e-03 0.0000000000000000e+00  -2.7815799542417878e-03 6.5020032153424714e-03 0.0000000000000000e+00  -2.9870067649943235e-03 6.7039069298347707e-03 0.0000000000000000e+00  -3.2364457307344587e-03 6.9810018752320575e-03 0.0000000000000000e+00  -3.5101157424975212e-03 7.2378809736953062e-03 0.0000000000000000e+00  -3.7825876836843921e-03 7.5171837566918491e-03 0.0000000000000000e+00  -3.9996162805728480e-03 7.7320766744008885e-03 0.0000000000000000e+00  -4.3175853104002442e-03 8.0132493257393331e-03 0.0000000000000000e+00  -4.6091121522105214e-03 8.2654776275888405e-03 0.0000000000000000e+00  -4.9113789500064425e-03 8.5149428208526490e-03 0.0000000000000000e+00  -5.2474218063331629e-03 8.7856181753056574e-03 0.0000000000000000e+00  -5.5852932501962186e-03 9.0259573745397979e-03 0.0000000000000000e+00  -5.9343288046487200e-03 9.3007243073098510e-03 0.0000000000000000e+00  -6.3305861553555557e-03 9.5932744450181028e-03 0.0000000000000000e+00  -6.6834309621105759e-03 9.8093548954468514e-03 0.0000000000000000e+00  -7.1303724104901768e-03 1.0091079153626491e-02 0.0000000000000000e+00  -7.5126705728140661e-03 1.0359108437647150e-02 0.0000000000000000e+00  -7.9659164729705828e-03 1.0631118359458548e-02 0.0000000000000000e+00  -8.4320458610457113e-03 1.0886414403678360e-02 0.0000000000000000e+00  -8.9051393815975047e-03 1.1185022513365598e-02 0.0000000000000000e+00  -9.3850217950266820e-03 1.1406418624107758e-02 0.0000000000000000e+00  -9.9311163937335824e-03 1.1688863106590714e-02 0.0000000000000000e+00  -1.0447567082001548e-02 1.1978967027851974e-02 0.0000000000000000e+00  -1.1008400632668280e-02 1.2214805076198255e-02 0.0000000000000000e+00  -1.1574167448053087e-02 1.2498464448240642e-02 0.0000000000000000e+00  -1.2218996277363621e-02 1.2766132359547929e-02 0.0000000000000000e+00  -1.2832031481557022e-02 1.3072323743892013e-02 0.0000000000000000e+00  -1.3489016679506468e-02 1.3173473735052380e-02 0.0000000000000000e+00  -1.4235002574243419e-02 1.3612949839151020e-02 0.0000000000000000e+00  -1.4862414129618548e-02 1.3751395270216914e-02 0.0000000000000000e+00  -1.5619260518462319e-02 1.4080470459528755e-02 0.0000000000000000e+00  -1.6379372206039945e-02 1.4315688019294061e-02 0.0000000000000000e+00  -1.7168918397866106e-02 1.4538881889615916e-02 0.0000000000000000e+00  -1.7991930354036186e-02 1.4817524544178926e-02 0.0000000000000000e+00  -1.8869731332329109e-02 1.5024312663305960e-02 0.0000000000000000e+00  -1.9776531920759240e-02 1.5338181113432540e-02 0.0000000000000000e+00  -2.0653244403216711e-02 1.5444776941951961e-02 0.0000000000000000e+00  -2.1641359117727407e-02 1.5629161724543067e-02 0.0000000000000000e+00  -2.2735120453928750e-02 1.6039787052942501e-02 0.0000000000000000e+00  -2.3676403583836787e-02 1.6086012014844511e-02 0.0000000000000000e+00  -2.4757919725924397e-02 1.6351826911863664e-02 0.0000000000000000e+00  -2.5869556605039149e-02 1.6519929048669675e-02 0.0000000000000000e+00  -2.6977046187583186e-02 1.6697284619240738e-02 0.0000000000000000e+00  -2.8184190581270141e-02 1.6810612077740546e-02 0.0000000000000000e+00  -2.9402761043560578e-02 1.6965036643623050e-02 0.0000000000000000e+00  -3.0678194403646126e-02 1.7096937354973207e-02 0.0000000000000000e+00  -3.1998759805992344e-02 1.7199482135743273e-02 0.0000000000000000e+00  -3.3392436186721948e-02 1.7414788990788129e-02 0.0000000000000000e+00  -3.4719254339976031e-02 1.7304338133080872e-02 0.0000000000000000e+00  -3.6223736772797221e-02 1.7375257542104502e-02 0.0000000000000000e+00  -3.7598217270401295e-02 1.7342525978414718e-02 0.0000000000000000e+00  -3.9349861699010023e-02 1.7551356493416263e-02 0.0000000000000000e+00  -4.0686491956976642e-02 1.7331679454388075e-02 0.0000000000000000e+00  -4.2210292519531623e-02 1.7221329884749146e-02 0.0000000000000000e+00  -4.3874590659870705e-02 1.7334348992496394e-02 0.0000000000000000e+00  -4.5672729028187899e-02 1.7129311578076074e-02 0.0000000000000000e+00  -4.7241279626732295e-02 1.6900662171532094e-02 0.0000000000000000e+00  -4.8965258532940488e-02 1.6752490916281448e-02 0.0000000000000000e+00  -5.0376349007572846e-02 1.6224814509074276e-02 0.0000000000000000e+00  -5.2450965492721990e-02 1.6270240239421273e-02 0.0000000000000000e+00  -5.4428288254514803e-02 1.5805515626093211e-02 0.0000000000000000e+00  -5.5666761309641967e-02 1.5375721176953714e-02 0.0000000000000000e+00  -5.7482156315376579e-02 1.4894971596856991e-02 0.0000000000000000e+00  -5.9150363488302139e-02 1.4460030789131998e-02 0.0000000000000000e+00  -6.0890025750296971e-02 1.3796425926315857e-02 0.0000000000000000e+00  -6.2712093300807917e-02 1.3417364522274199e-02 0.0000000000000000e+00  -6.4055622882359137e-02 1.2452302110279147e-02 0.0000000000000000e+00  -6.5776762083950682e-02 1.1889069880380788e-02 0.0000000000000000e+00  -6.7278837005603706e-02 1.1253005900837462e-02 0.0000000000000000e+00  -6.8457105636551163e-02 1.0277206476122467e-02 0.0000000000000000e+00  -6.9855206785353577e-02 9.4114228394802848e-03 0.0000000000000000e+00  -7.1009047297391756e-02 8.5296998787153019e-03 0.0000000000000000e+00  -7.2163611477405715e-02 7.6029949271096487e-03 0.0000000000000000e+00  -7.3087877978265270e-02 6.6070670912260930e-03 0.0000000000000000e+00  -7.3803695527547911e-02 5.4715476004763078e-03 0.0000000000000000e+00  -7.4671272228044330e-02 4.5181539551317068e-03 0.0000000000000000e+00  -7.5191312214923811e-02 3.4700652818780756e-03 0.0000000000000000e+00  -7.5506573984013489e-02 2.1614383180084840e-03 0.0000000000000000e+00  -7.5790251905159839e-02 1.0708808837079824e-03 0.0000000000000000e+00  -7.5714777120106574e-02 -1.2249003222665224e-03 0.0000000000000000e+00  -7.5599554168541944e-02 -2.2630449570304636e-03 0.0000000000000000e+00  -7.5098617641977283e-02 -3.2706734518630149e-03 0.0000000000000000e+00  -7.4691510102617015e-0