<?xml version="1.0"?>
<VTKFile type="UnstructuredGrid"  version="0.1"  >
<UnstructuredGrid>
<Piece  NumberOfPoints="17003" NumberOfCells="33542">
<Points>
<DataArray  type="Float64"  NumberOfComponents="3"  format="ascii">1 0 0  1.110223024625157e-16 1 0  -1 1.224646799147353e-16 0  -2.220446049250313e-16 -1 0  10 0 0  1.110223024625157e-15 10 0  -10 1.224646799147353e-15 0  -2.220446049250313e-15 -10 0  1 6 0  0 7 0  -0.9999999999999999 6 0  0 5 0  1 -6 0  0 -5 0  -1 -6 0  0 -7 0  1.15 0 0  1.3 0 0  1.45 0 0  1.6 0 0  1.75 0 0  1.9 0 0  2.05 0 0  2.2 0 0  2.35 0 0  2.5 0 0  2.65 0 0  2.8 0 0  2.95 0 0  3.1 0 0  3.25 0 0  3.4 0 0  3.55 0 0  3.7 0 0  3.85 0 0  4 0 0  4.15 0 0  4.3 0 0  4.45 0 0  4.6 0 0  4.75 0 0  4.9 0 0  5.05 0 0  5.2 0 0  5.35 0 0  5.5 0 0  5.65 0 0  5.8 0 0  5.95 0 0  6.1 0 0  6.25 0 0  6.4 0 0  6.55 0 0  6.7 0 0  6.85 0 0  7 0 0  7.15 0 0  7.3 0 0  7.45 0 0  7.6 0 0  7.75 0 0  7.9 0 0  8.050000000000001 0 0  8.199999999999999 0 0  8.35 0 0  8.5 0 0  8.65 0 0  8.800000000000001 0 0  8.949999999999999 0 0  9.1 0 0  9.25 0 0  9.4 0 0  9.550000000000001 0 0  9.699999999999999 0 0  9.85 0 0  -1.15 1.408343819019456e-16 0  -1.3 1.592040838891559e-16 0  -1.45 1.775737858763662e-16 0  -1.6 1.959434878635765e-16 0  -1.75 2.143131898507868e-16 0  -1.9 2.326828918379971e-16 0  -2.05 2.510525938252074e-16 0  -2.2 2.694222958124177e-16 0  -2.35 2.87791997799628e-16 0  -2.5 3.061616997868383e-16 0  -2.65 3.245314017740486e-16 0  -2.8 3.429011037612589e-16 0  -2.95 3.612708057484692e-16 0  -3.1 3.796405077356795e-16 0  -3.25 3.980102097228898e-16 0  -3.4 4.163799117101001e-16 0  -3.55 4.347496136973104e-16 0  -3.7 4.531193156845207e-16 0  -3.85 4.71489017671731e-16 0  -4 4.898587196589413e-16 0  -4.15 5.082284216461516e-16 0  -4.3 5.265981236333618e-16 0  -4.45 5.449678256205722e-16 0  -4.6 5.633375276077825e-16 0  -4.75 5.817072295949928e-16 0  -4.9 6.000769315822031e-16 0  -5.05 6.184466335694134e-16 0  -5.2 6.368163355566237e-16 0  -5.35 6.55186037543834e-16 0  -5.5 6.735557395310443e-16 0  -5.65 6.919254415182546e-16 0  -5.8 7.102951435054649e-16 0  -5.95 7.286648454926752e-16 0  -6.1 7.470345474798854e-16 0  -6.25 7.654042494670958e-16 0  -6.4 7.837739514543061e-16 0  -6.55 8.021436534415163e-16 0  -6.7 8.205133554287267e-16 0  -6.85 8.388830574159369e-16 0  -7 8.572527594031472e-16 0  -7.15 8.756224613903577e-16 0  -7.3 8.939921633775679e-16 0  -7.45 9.123618653647781e-16 0  -7.6 9.307315673519883e-16 0  -7.75 9.491012693391988e-16 0  -7.9 9.67470971326409e-16 0  -8.050000000000001 9.858406733136192e-16 0  -8.199999999999999 1.00421037530083e-15 0  -8.35 1.02258007728804e-15 0  -8.5 1.04094977927525e-15 0  -8.65 1.059319481262461e-15 0  -8.800000000000001 1.077689183249671e-15 0  -8.949999999999999 1.096058885236881e-15 0  -9.1 1.114428587224091e-15 0  -9.25 1.132798289211302e-15 0  -9.4 1.151167991198512e-15 0  -9.550000000000001 1.169537693185722e-15 0  -9.699999999999999 1.187907395172933e-15 0  -9.85 1.206277097160143e-15 0  0.9898214418809328 0.1423148382732849 0  0.9594929736144975 0.2817325568414294 0  0.9096319953545183 0.4154150130018865 0  0.841253532831181 0.540640817455598 0  0.755749574354258 0.6548607339452853 0  0.6548607339452852 0.7557495743542582 0  0.5406408174555974 0.8412535328311812 0  0.4154150130018855 0.9096319953545188 0  0.2817325568414297 0.9594929736144974 0  0.1423148382732853 0.9898214418809327 0  -0.1423148382732849 0.9898214418809328 0  -0.2817325568414294 0.9594929736144975 0  -0.415415013001886 0.9096319953545186 0  -0.5406408174555971 0.8412535328311814 0  -0.6548607339452852 0.7557495743542582 0  -0.7557495743542584 0.6548607339452849 0  -0.8412535328311812 0.5406408174555974 0  -0.9096319953545188 0.4154150130018856 0  -0.9594929736144976 0.2817325568414289 0  -0.9898214418809327 0.1423148382732853 0  -0.9898214418809328 -0.142314838273285 0  -0.9594929736144975 -0.2817325568414294 0  -0.9096319953545184 -0.4154150130018862 0  -0.8412535328311813 -0.5406408174555973 0  -0.7557495743542587 -0.6548607339452845 0  -0.6548607339452861 -0.7557495743542574 0  -0.540640817455599 -0.8412535328311803 0  -0.4154150130018883 -0.9096319953545176 0  -0.2817325568414313 -0.9594929736144969 0  -0.1423148382732862 -0.9898214418809326 0  0.142314838273285 -0.9898214418809328 0  0.2817325568414295 -0.9594929736144975 0  0.4154150130018862 -0.9096319953545184 0  0.5406408174555976 -0.8412535328311812 0  0.6548607339452847 -0.7557495743542586 0  0.7557495743542576 -0.6548607339452859 0  0.8412535328311803 -0.5406408174555989 0  0.9096319953545176 -0.4154150130018883 0  0.9594929736144969 -0.2817325568414313 0  0.9898214418809326 -0.142314838273286 0  9.998881018102734 0.1495940701526364 0  9.995524322835033 0.2991546616939819 0  9.989930665413148 0.448648303505148 0  9.982101297677351 0.5980415394503419 0  9.972037971811801 0.7473009358642397 0  9.95974293995239 0.8963930890343337 0  9.945218953682733 1.045284632676535 0  9.928469263418373 1.193942245402441 0  9.909497617679348 1.342332658176554 0  9.888308262251286 1.490422661761745 0  9.864905939235214 1.638179114151379 0  9.839295885986296 1.785568947986365 0  9.811483833941727 1.932559177955533 0  9.781476007338055 2.079116908177595 0  9.749279121818237 2.225209339563143 0  9.714900382928674 2.370803777154975 0  9.678347484506665 2.515867637445087 0  9.639628606958532 2.660368455666754 0  9.598752415428891 2.804273893060028 0  9.555728057861407 2.947551744109044 0  9.510565162951536 3.090169943749473 0  9.463273837991641 3.2320965745446 0  9.413864666609031 3.373299873828302 0  9.362348706397372 3.513748240813426 0  9.308737486442043 3.65341024366395 0  9.253043004739967 3.792254626529286 0  9.195277725514506 3.930250316539235 0  9.135454576426008 4.067366430758002 0  9.073586945678647 4.203572283095657 0  9.009688679024192 4.33883739117558 0  8.943774076663368 4.473131483156326 0  8.875857890045539 4.606424504506324 0  8.80595531856738 4.738686624729985 0  8.734082006171297 4.869888244043673 0  8.660254037844386 5.000000000000001 0  8.584487936018663 5.128992774059061 0  8.506800656873395 5.256837698105047 0  8.427209586540391 5.383506160906824 0  8.345732537213028 5.508969814521024 0  8.262387743159948 5.63320058063622 0  8.177193856644315 5.756170656856733 0  8.090169943749475 5.87785252292473 0  8.001335480112063 5.998218946879136 0  7.910710346563414 6.117242991150062 0  7.818314824680299 6.234898018587334 0  7.724169592245995 6.351157698421788 0  7.628295718622668 6.465996012157994 0  7.53071466003611 6.579387259397125 0  7.431448254773942 6.691306063588582 0  7.330518718298265 6.801727377709192 0  7.227948638273915 6.910626489868646 0  7.123760969513448 7.017979028839914 0  7.017979028839916 7.123760969513446 0  6.910626489868648 7.227948638273913 0  6.801727377709195 7.330518718298262 0  6.691306063588584 7.43144825477394 0  6.579387259397128 7.530714660036109 0  6.465996012158 7.628295718622661 0  6.351157698421787 7.724169592245996 0  6.234898018587337 7.818314824680296 0  6.117242991150067 7.91071034656341 0  5.998218946879136 8.001335480112065 0  5.877852522924733 8.090169943749473 0  5.75617065685674 8.17719385664431 0  5.63320058063622 8.262387743159948 0  5.508969814521026 8.345732537213026 0  5.383506160906828 8.427209586540389 0  5.256837698105046 8.506800656873395 0  5.128992774059063 8.584487936018659 0  5.000000000000004 8.660254037844384 0  4.869888244043672 8.734082006171297 0  4.738686624729988 8.80595531856738 0  4.606424504506327 8.875857890045539 0  4.473131483156325 8.943774076663368 0  4.338837391175582 9.00968867902419 0  4.203572283095659 9.073586945678647 0  4.067366430758001 9.13545457642601 0  3.930250316539238 9.195277725514506 0  3.79225462652928 9.253043004739968 0  3.653410243663949 9.308737486442043 0  3.513748240813428 9.362348706397372 0  3.373299873828296 9.413864666609033 0  3.232096574544599 9.463273837991643 0  3.090169943749475 9.510565162951535 0  2.947551744109038 9.555728057861408 0  2.804273893060026 9.598752415428891 0  2.660368455666753 9.639628606958532 0  2.515867637445081 9.678347484506666 0  2.370803777154974 9.714900382928676 0  2.225209339563146 9.749279121818235 0  2.07911690817759 9.781476007338057 0  1.932559177955532 9.811483833941727 0  1.785568947986369 9.839295885986296 0  1.638179114151373 9.864905939235216 0  1.490422661761743 9.888308262251286 0  1.342332658176557 9.909497617679348 0  1.193942245402448 9.928469263418373 0  1.045284632676533 9.945218953682733 0  0.8963930890343368 9.95974293995239 0  0.7473009358642473 9.972037971811801 0  0.5980415394503404 9.982101297677351 0  0.4486483035051511 9.989930665413146 0  0.2991546616939894 9.995524322835033 0  0.1495940701526439 9.998881018102734 0  -0.1495940701526314 9.998881018102734 0  -0.2991546616939856 9.995524322835033 0  -0.4486483035051474 9.989930665413148 0  -0.5980415394503369 9.982101297677351 0  -0.7473009358642436 9.972037971811801 0  -0.8963930890343331 9.95974293995239 0  -1.04528463267653 9.945218953682733 0  -1.193942245402444 9.928469263418373 0  -1.342332658176553 9.909497617679348 0  -1.490422661761739 9.888308262251286 0  -1.638179114151378 9.864905939235214 0  -1.785568947986365 9.839295885986296 0  -1.932559177955528 9.811483833941727 0  -2.079116908177594 9.781476007338055 0  -2.225209339563142 9.749279121818237 0  -2.37080377715497 9.714900382928676 0  -2.515867637445086 9.678347484506665 0  -2.66036845566675 9.639628606958533 0  -2.804273893060031 9.598752415428889 0  -2.947551744109043 9.555728057861407 0  -3.090169943749472 9.510565162951536 0  -3.232096574544604 9.46327383799164 0  -3.373299873828301 9.413864666609031 0  -3.513748240813425 9.362348706397373 0  -3.653410243663954 9.308737486442041 0  -3.792254626529285 9.253043004739967 0  -3.930250316539234 9.195277725514506 0  -4.067366430758006 9.135454576426007 0  -4.203572283095657 9.073586945678647 0  -4.33883739117558 9.009688679024192 0  -4.47313148315633 8.943774076663367 0  -4.606424504506324 8.875857890045539 0  -4.7386866
[...]
<PointData  Scalars="f_22"> 
<DataArray  type="Float64"  Name="f_22"  format="ascii">0.0000000000000000e+00  0.0000000000000000e+00  0.0000000000000000e+00  0.0000000000000000e+00  0.0000000000000000e+00  0.0000000000000000e+00  0.0000000000000000e+00  0.0000000000000000e+00  3.4090100767405646e-01  3.4089843619659438e-01  3.4090101900072134e-01  3.4090230588742865e-01  -1.7044796492031244e-01  -1.7044925322019069e-01  -1.7044797585185409e-01  -1.7044538798372189e-01  -2.3262722413373174e-06  4.7692513168363682e-06  2.0550854883734931e-06  1.8443867279233501e-06  -3.3587308051645299e-07  -2.5900098460043190e-07  1.2685269465611540e-06  -9.1238922601976967e-08  3.0145989126792534e-07  5.4580952601771259e-07  5.4423218254121411e-07  6.1529734947353766e-07  1.0825926731357264e-08  1.3977771885739775e-08  -2.9563697474124764e-07  -4.7153046111262851e-07  -6.0352607973855944e-07  -2.4095650501990150e-07  4.6226967688337983e-07  5.3147847216135221e-07  2.5260803164139365e-08  1.3892596959201002e-07  -5.0287009582927853e-07  2.8029411985556473e-07  2.0183608168646280e-07  -7.4797176821751632e-07  6.1225752379787160e-07  1.2133344706375973e-06  2.4108188824252702e-06  -1.2269719565248188e-06  7.9967895772567965e-07  4.2379878066201696e-07  -6.0294023393800505e-07  -7.8131348708786786e-07  1.6370505351906534e-07  -7.1908456466671746e-07  -1.9481707455485396e-07  -6.6259611383084064e-07  -9.1134298109543935e-07  -2.7688770798371149e-07  -3.9191558412698983e-07  8.1341981129465226e-07  9.7074457475075981e-07  -8.0707907662062526e-07  -2.7168214944531441e-07  2.6236217287989610e-07  -3.2161863839742741e-07  2.8550512754791554e-08  8.5375549658535907e-07  1.1220772364372531e-06  -3.5270802674477508e-07  -5.4881818567108488e-07  -3.1976605412472003e-08  3.3550001412994474e-08  -4.0209522389350622e-07  -3.9762278464766606e-08  -3.7133025455528785e-07  -2.1684115812623548e-08  2.4680739756094180e-07  6.2637181471483186e-06  -3.4943894564294862e-06  -2.1846501739094961e-06  -5.0938262898182815e-06  -4.1580291080715988e-06  1.8197423832358189e-06  -7.5343955091557047e-07  -1.9973110936847408e-07  -1.9767438292278130e-08  4.5770443863951091e-08  1.6195993029835646e-07  4.3694212450225520e-07  -1.3015584886295981e-07  1.8261440714480644e-07  -1.5633831709312264e-06  8.9092929674433326e-07  9.0179750850158173e-07  7.9383194500087644e-07  9.6961590270207245e-07  -1.0293034143062519e-06  1.4946483824991125e-06  2.2968732886753696e-08  -2.0170642064921381e-07  -1.3834067417420298e-06  -9.5336073928335819e-07  1.0337690234301599e-06  1.8900745884266599e-06  -1.0235215871915197e-06  1.4288907917579646e-06  -5.7638562610198558e-07  -1.1740515230425851e-06  9.5799739311656184e-07  3.7490843911007290e-07  2.6262941484819191e-07  2.4374942729089905e-07  4.0833275615015480e-07  5.7336995152085510e-07  1.8204706309328830e-07  1.1871026203010145e-07  5.5526165295527743e-07  -1.0878555796585024e-06  -1.1449172007017695e-06  3.2735178980975964e-07  2.4748781467780396e-08  1.7509012019729232e-08  6.6177810325475452e-07  -3.5263903004307749e-07  -5.5779418627580702e-07  9.4982313691588345e-07  -4.3900538361836930e-07  5.2436434269560468e-07  -5.2136950743229029e-08  2.8160181301478728e-07  3.9750452269256632e-07  1.2025190798773384e-08  2.0526550462844967e-07  2.6550968262036625e-07  -6.0362148955440144e-07  1.0573928771039441e-07  0.0000000000000000e+00  0.0000000000000000e+00  0.0000000000000000e+00  0.0000000000000000e+00  0.0000000000000000e+00  0.0000000000000000e+00  0.0000000000000000e+00  0.0000000000000000e+00  0.0000000000000000e+00  0.0000000000000000e+00  0.0000000000000000e+00  0.0000000000000000e+00  0.0000000000000000e+00  0.0000000000000000e+00  0.0000000000000000e+00  0.0000000000000000e+00  0.0000000000000000e+00  0.0000000000000000e+00  0.0000000000000000e+00  0.0000000000000000e+00  0.0000000000000000e+00  0.0000000000000000e+00  0.0000000000000000e+00  0.0000000000000000e+00  0.0000000000000000e+00  0.0000000000000000e+00  0.0000000000000000e+00  0.0000000000000000e+00  0.0000000000000000e+00  0.0000000000000000e+00  0.0000000000000000e+00  0.0000000000000000e+00  0.0000000000000000e+00  0.0000000000000000e+00  0.0000000000000000e+00  0.0000000000000000e+00  0.0000000000000000e+00  0.0000000000000000e+00  0.0000000000000000e+00  0.0000000000000000e+00  0.0000000000000000e+00  0.0000000000000000e+00  0.0000000000000000e+00  0.0000000000000000e+00  0.0000000000000000e+00  0.0000000000000000e+00  0.0000000000000000e+00  0.0000000000000000e+00  0.0000000000000000e+00  0.0000000000000000e+00  0.0000000000000000e+00  0.0000000000000000e+00  0.0000000000000000e+00  0.0000000000000000e+00  0.0000000000000000e+00  0.0000000000000000e+00  0.0000000000000000e+00  0.0000000000000000e+00  0.0000000000000000e+00  0.0000000000000000e+00  0.0000000000000000e+00  0.0000000000000000e+00  0.0000000000000000e+00  0.0000000000000000e+00  0.0000000000000000e+00  0.0000000000000000e+00  0.0000000000000000e+00  0.0000000000000000e+00  0.0000000000000000e+00  0.0000000000000000e+00  0.0000000000000000e+00  0.0000000000000000e+00  0.0000000000000000e+00  0.0000000000000000e+00  0.0000000000000000e+00  0.0000000000000000e+00  0.0000000000000000e+00  0.0000000000000000e+00  0.0000000000000000e+00  0.0000000000000000e+00  0.0000000000000000e+00  0.0000000000000000e+00  0.0000000000000000e+00  0.0000000000000000e+00  0.0000000000000000e+00  0.0000000000000000e+00  0.0000000000000000e+00  0.0000000000000000e+00  0.0000000000000000e+00  0.0000000000000000e+00  0.0000000000000000e+00  0.0000000000000000e+00  0.0000000000000000e+00  0.0000000000000000e+00  0.0000000000000000e+00  0.0000000000000000e+00  0.0000000000000000e+00  0.0000000000000000e+00  0.0000000000000000e+00  0.0000000000000000e+00  0.0000000000000000e+00  0.0000000000000000e+00  0.0000000000000000e+00  0.0000000000000000e+00  0.0000000000000000e+00  0.0000000000000000e+00  0.0000000000000000e+00  0.0000000000000000e+00  0.0000000000000000e+00  0.0000000000000000e+00  0.0000000000000000e+00  0.0000000000000000e+00  0.0000000000000000e+00  0.0000000000000000e+00  0.0000000000000000e+00  0.0000000000000000e+00  0.0000000000000000e+00  0.0000000000000000e+00  0.0000000000000000e+00  0.0000000000000000e+00  0.0000000000000000e+00  0.0000000000000000e+00  0.0000000000000000e+00  0.0000000000000000e+00  0.0000000000000000e+00  0.0000000000000000e+00  0.0000000000000000e+00  0.0000000000000000e+00  0.0000000000000000e+00  0.0000000000000000e+00  0.0000000000000000e+00  0.0000000000000000e+00  0.0000000000000000e+00  0.0000000000000000e+00  0.0000000000000000e+00  0.0000000000000000e+00  0.0000000000000000e+00  0.0000000000000000e+00  0.0000000000000000e+00  0.0000000000000000e+00  0.0000000000000000e+00  0.0000000000000000e+00  0.0000000000000000e+00  0.0000000000000000e+00  0.0000000000000000e+00  0.0000000000000000e+00  0.0000000000000000e+00  0.0000000000000000e+00  0.0000000000000000e+00  0.0000000000000000e+00  0.0000000000000000e+00  0.0000000000000000e+00  0.0000000000000000e+00  0.0000000000000000e+00  0.0000000000000000e+00  0.0000000000000000e+00  0.0000000000000000e+00  0.0000000000000000e+00  0.0000000000000000e+00  0.0000000000000000e+00  0.0000000000000000e+00  0.0000000000000000e+00  0.0000000000000000e+00  0.0000000000000000e+00  0.0000000000000000e+00  0.0000000000000000e+00  0.0000000000000000e+00  0.0000000000000000e+00  0.0000000000000000e+00  0.0000000000000000e+00  0.0000000000000000e+00  0.0000000000000000e+00  0.0000000000000000e+00  0.0000000000000000e+00  0.0000000000000000e+00  0.0000000000000000e+00  0.0000000000000000e+00  0.0000000000000000e+00  0.0000000000000000e+00  0.0000000000000000e+00  0.0000000000000000e+00  0.0000000000000000e+00  0.0000000000000000e+00  0.0000000000000000e+00  0.0000000000000000e+00  0.0000000000000000e+00  0.0000000000000000e+00  0.0000000000000000e+00  0.0000000000000000e+00  0.0000000000000000e+00  0.0000000000000000e+00  0.0000000000000000e+00  0.0000000000000000e+00  0.0000000000000000e+00  0.0000000000000000e+00  0.0000000000000000e+00  0.0000000000000000e+00  0.0000000000000000e+00  0.0000000000000000e+00  0.0000000000000000e+00  0.0000000000000000e+00  0.0000000000000000e+00  0.0000000000000000e+00  0.0000000000000000e+00  0.0000000000000000e+00  0.0000000000000000e+00  0.0000000000000000e+00  0.0000000000000000e+00  0.0000000000000000e+00  0.0000000000000000e+00  0.0000000000000000e+00  0.0000000000000000e+00  0.0000000000000000e+00  0.0000000000000000e+00  0.0000000000000000e+00  0.0000000000000000e+00  0.0000000000000000e+00  0.0000000000000000e+00  0.0000000000000000e+00  0.0000000000000000e+00  0.0000000000000000e+00  0.0000000000000000e+00  0.0000000000000000e+00  0.0000000000000000e+00  0.0000000000000000e+00  0.0000000000000000e+00  0.0000000000000000e+00  0.0000000000000000e+00  0.0000000000000000e+00  0.0000000000000000e+00  0.0000000000000000e+00  0.0000000000000000e+00  0.0000000000000000e+00  0.0000000000000000e+00  0.0000000000000000e+00  0.0000000000000000e+00  0.0000000000000000e+00  0.0000000000000000e+00  0.0000000000000000e+00  0.0000000000000000e+00  0.0000000000000000e+00  0.0000000000000000e+00  0.0000000000000000e+00  0.0000000000000000e+00  0.0000000000000000e+00  0.0000000000000000e+00  0.0000000000000000e+00  0.0000000000000000e+00  0.0000000000000000e+00  0.0000000000000000e+00  0.0000000000000000e+00  0.0000000000000000e+00  0.0000000000000000e+00  0.0000000000000000e+00  0.0000000000000000e+00  0.0000000000000000e+00  0.0000000000000000e+00  0.0000000000000000e+00  0.0000000000000000e+00  0.0000000000000000e+00  0.0000000000000000e+00  0.0000000000000000e+00  0.0000000000000000e+00  0.0000000000000000e+00  0.0000000000000000e+00  0.0000000000000000e+00  0.0000000000000000e+00  0.0000000000000000e+00  0.0000000000000000e+00  0.0000000000000000e+00  0.0000000000000000e+00  0.0000000000000000e+00  0.0000000000000000e+00  0.0000000000000000e+00  0.0000000000000000e+00  0.0000000000000000e+00  0.0000000000000000e+00  0.0000000000000000e+00  0.0000000000000000e+00  0.0000000000000000e+00  0.0000000000000000e+00  0.0000000000000000e+00  0.0000000000000000e+00  0.0000000000000000e+00  0.0000000000000000e+00  0.0000000000000000e+00  0.0000000000000000e+00  0.0000000000000000e+00  0.0000000000000000e+00  0.0000000000000000e+00  0.0000000000000000e+00  0.0000000000000000e+00  0.0000000000000000e+00  0.0000000000000000e+00  0.0000000000000000e+00  0.0000000000000000e+00  0.0000000000000000e+00  0.0000000000000000e+00  0.0000000000000000e+00  0.0000000000000000e+00  0.0000000000000000e+00  0.0000000000000000e+00  0.0000000000000000e+00  0.0000000000000000e+00  0.0000000000000000e+00  0.0000000000000000e+00  0.0000000000000000e+00  0.0000000000000000e+00  0.0000000000000000e+00  0.0000000000000000e+00  0.0000000000000000e+00  0.0000000000000000e+00  0.0000000000000000e+00  0.0000000000000000e+00  0.0000000000000000e+00  0.0000000000000000e+00  0.0000000000000000e+00  0.0000000000000000e+00  0.0000000000000000e+00  0.0000000000000000e+00  0.0000000000000000e+00  0.0000000000000000e+00  0.0000000000000000e+00  0.0000000000000000e+00  0.0000000000000000e+00  0.0000000000000000e+00  0.0000000000000000e+00  0.0000000000000000e+00  0.0000000000000000e+00  0.0000000000000000e+00  0.0000000000000000e+00  0.0000000000000000e+00  0.0000000000000000e+00  0.0000000000000000e+00  0.0000000000000000e+00  0.0000000000000000e+00  0.0000000000000000e+00  0.0000000000000000e+00  0.0000000000000000e+00  0.0000000000000000e+00  0.0000000000000000e+00  0.0000000000000000e+00  0.0000000000000000e+00  0.0000000000000000e+00  0.0000000000000000e+00  0.0000000000000000e+00  0.0000000000000000e+00  0.0000000000000000e+00  0.0000000000000000e+00  0.0000000000000000e+00  0.0000000000000000e+00  0.0000000000000000e+00  0.0000000000000000e+00  0.0000000000000000e+00  0.0000000000000000e+00  0.0000000000000000e+00  0.0000000000000000e+00  0.0000000000000000e+00  0.0000000000000000e+00  0.0000000000000000e+00  0.0000000000000000e+00  0.0000000000000000e+00  0.0000000000000000e+00  0.0000000000000000e+00  0.0000000000000000e+00  0.0000000000000000e+00  0.0000000000000000e+00  0.0000000000000000e+00  0.0000000000000000e+00  0.0000000000000000e+00  0.0000000000000000e+00  0.0000000000000000e+00  0.0000000000000000e+00  0.0000000000000000e+00  0.0000000000000000e+00  0.0000000000000000e+00  0.0000000000000000e+00  0.0000000000000000e+00  0.0000000000000000e+00  0.0000000000000000e+00  0.0000000000000000e+00  0.0000000000000000e+00  0.0000000000000000e+00  0.0000000000000000e+00  0.0000000000000000e+00  0.0000000000000000e+00  0.0000000000000000e+00  0.0000000000000000e+00  0.0000000000000000e+00  0.0000000000000000e+00  0.0000000000000000e+00  0.0000000000000000e+00  0.0000000000000000e+00  0.0000000000000000e+00  0.0000000000000000e+00  0.0000000000000000e+00  0.0000000000000000e+00  0.0000000000000000e+00  0.0000000000000000e+00  0.0000000000000000e+00  0.0000000000000000e+00  0.0000000000000000e+00  0.0000000000000000e+00  0.0000000000000000e+00  0.0000000000000000e+00  0.0000000000000000e+00  0.0000000000000000e+00  0.0000000000000000e+00  0.0000000000000000e+00  0.0000000000000000e+00  0.0000000000000000e+00  0.0000000000000000e+00  0.0000000000000000e+00  0.0000000000000000e+00  0.0000000000000000e+00  0.0000000000000000e+00  0.0000000000000000e+00  0.0000000000000000e+00  0.0000000000000000e+00  0.0000000000000000e+00  0.0000000000000000e+00  0.0000000000000000e+00  0.0000000000000000e+00  0.0000000000000000e+00  0.0000000000000000e+00  0.0000000000000000e+00  0.0000000000000000e+00  0.0000000000000000e+00  0.0000000000000000e+00  0.0000000000000000e+00  0.0000000000000000e+00  0.0000000000000000e+00  0.0000000000000000e+00  0.0000000000000000e+00  0.0000000000000000e+00  0.0000000000000000e+00  0.0000000000000000e+00  0.0000000000000000e+00  0.0000000000000000e+00  0.0000000000000000e+00  0.0000000000000000e+00  0.0000000000000000e+00  0.0000000000000000e+00  0.0000000000000000e+00  0.0000000000000000e+00  0.0000000000000000e+00  0.0000000000000000e+00  0.0000000000000000e+00  0.0000000000000000e+00  0.0000000000000000e+00  0.0000000000000000e+00  0.0000000000000000e+00  0.0000000000000000e+00  0.0000000000000000e+00  0.0000000000000000e+00  0.0000000000000000e+00  3.4090071978400344e-01  3.4090041237315438e-01  3.4090009135140942e-01  3.4089976627774804e-01  3.4089948525964575e-01  3.4089919277167430e-01  3.4089892463307370e-01  3.4089872265776816e-01  3.4089856687846004e-01  3.4089847974337040e-01  3.4089845819966513e-01  3.4089855988196727e-01  3.4089871270738825e-01  3.4089893811445304e-01  3.4089919598853929e-01  3.4089947792147701e-01  3.4089978835047174e-01  3.4090009566931379e-01  3.4090040695480806e-01  3.4090072213528194e-01  3.4090127632351430e-01  3.4090150331554836e-01  3.4090169643554080e-01  3.4090188634250462e-01  3.4090201444996548e-01  3.4090211571405238e-01  3.4090220270694299e-01  3.4090224711106498e-01  3.4090227863758066e-01  3.4090230095603474e-01  3.4090229584215959e-01  3.4090226812270391e-01  3.4090225479492542e-01  3.4090219579313980e-01  3.4090212310915380e-01  3.4090200985876090e-01  3.4090187085977064e-01  3.4090172253776191e-01  3.4090151932974821e-01  3.4090128485061871e-01  -1.7044822521509115e-01  -1.7044846030018429e-01  -1.7044866608790055e-01  -1.7044882424230726e-01  -1.7044897057819455e-01  -1.7044908365083006e-01  -1.7044914197802091e-01  -1.7044919888703644e-01  -1.7044926127846022e-01  -1.7044925919691178e-01  -1.7044924624512661e-01  -1.7044923233981024e-01  -1.7044919584668622e-01  -1.7044915177395975e-01  -1.7044908078704865e-01  -1.7044896879566684e-01  -1.7044883032331246e-01  -1.7044867194790467e-01  -1.7044847290858711e-01  -1.7044822649874514e-01  -1.7044769103826685e-01  -1.7044734377942447e-01  -1.7044704468188834e-01  -1.7044674856071457e-01  -1.7044643576117935e-01  -1.7044614681679562e-01  -1.7044589470498037e-01  -1.7044566691983473e-01  -1.7044552142070565e-01  -1.7044543053765457e-01  -1.7044541509023989e-01  -1.7044552268606133e-01  -1.7044567672413399e-01  -1.7044588215459000e-01  -1.7044613798057198e-01  -1.7044641715340264e-01  -1.7044672740646460e-01  -1.7044706103635743e-01  -1.7044737871988605e-01  -1.7044768694681009e-01  2.2014733398776011e-03  2.3700293724006555e-03  2.0318363528837465e-03  2.1762748335362046e-03  3.2101094565910748e-01  3.1881722720724642e-01  1.6775114693773621e-03  1.5288868476220467e-03  2.6356309220315326e-03  2.7650753008730015e-03  1.6979995449620186e-03  1.6831764045138432e-03  3.0197443071461288e-03  2.9340117325138567e-03  3.2028519805161088e-01  3.2073414004507450e-01  1.1417175968028474e-03  1.2082083110233053e-03  3.6070022545172799e-03  3.8429184333501074e-03  3.1262094059703017e-03  3.3717343498538633e-03  1.1887317760569300e-03  1.2016277451498329e-03  7.4039141542214439e-03  7.5763507759721831e-03  3.1874609881451199e-01  3.1849010069405337e-01  9.5644628653436189e-04  8.2371225711561709e-04  4.5428332650001620e-03  4.4491416580707708e-03  3.2183942192281412e-01  3.1717047875995180e-01  5.9224140021940973e-03  5.5349416425009654e-03  7.5475170570372117e-04  7.6264752951596643e-04  6.0577290165558784e-04  5.4807009675311659e-04  9.4740080123315879e-03  1.1004332899270100e-02  3.1882388508163628e-01  3.1306883326860974e-01  7.1695413687261796e-03  6.8474165521231192e-03  7.9196033569549004e-03  7.0424416331710798e-03  4.5029449522848562e-04  4.5494738877558554e-04  3.1537759624449258e-01  3.1677938609699569e-01  8.1724404706352456e-03  8.3235136796547503e-03  4.7119496439553666e-04  4.7434723169100516e-04  3.1352734466765569e-01  3.1771347708767933e-01  9.1123532361699709e-03  9.6562795388116050e-03  7.6190507309967766e-03  3.3909977234193550e-03  2.5945986970860209e-03  2.1188002637500974e-03  1.9960686907727547e-03  2.1085355174647468e-03  1.9734330431404015e-03  1.3555054753894783e-03  1.2765200695107695e-03  3.1998412134074110e-04  3.2577831460425149e-04  3.2687723034752946e-04  3.2575426809684408e-04  5.1513260191058943e-03  4.2021714021857042e-03  1.8578349201018348e-04  1.7476709212195938e-04  2.6004930540961288e-03  3.0232979045623377e-03  3.2837284493723974e-03  3.2412378649092259e-03  1.8841314677262766e-03  1.8873653815824991e-03  9.0262699634327754e-04  1.4387482936865027e-03  1.4050551126829187e-03  9.2751526487791665e-04  9.9146135930554304e-03  9.4289793372323225e-03  6.1752799135716590e-03  4.8493166588239192e-03  4.8406622867985171e-03  4.8627965339138176e-03  4.3291996680051405e-03  4.0776501640331867e-03  3.6642367994938123e-03  3.6784139347545422e-03  1.0235017432651636e-03  9.0968501337837721e-04  7.3814909302597474e-04  8.4504538109812246e-04  1.8408286199669556e-04  1.8975974554729421e-04  3.1981749314039443e-01  2.6231480622475440e-03  2.4929027401844974e-03  1.1857599231730910e-04  1.0603599636102450e-04  3.4325876100663737e-03  3.6473475147685321e-03  2.5266228705582063e-03  2.6374046126148029e-03  1.2363079038285319e-04  1.1772087778925684e-04  6.0162872538341620e-04  5.5741991636966502e-04  4.5617764366828441e-04  4.3441330052261962e-04  1.8127029509809173e-03  1.8709183386915462e-03  9.2360984747865433e-03  9.1764691477269778e-03  9.7127308210537520e-03  8.4121895392956607e-03  7.9627573121602031e-03  8.7185585514635948e-03  8.3343581188214822e-03  3.9214920517680520e-03  3.5291268077952890e-03  2.4585267813334861e-03  2.6256864383012836e-03  2.9854950544954311e-03  3.1938579418530370e-03  2.3384314491972260e-03  2.2307623812727832e-03  1.6660380711182423e-03  1.9222939925119553e-03  1.5713826924351974e-03  1.8917092161216233e-03  1.4327324579464003e-03  1.4792601457660419e-03  1.3215389311737236e-03  1.2535552163547520e-03  1.0385592483575646e-03  1.1168759877713905e-03  5.6538714537924953e-04  5.1523872342190019e-04  4.1209586843670852e-04  3.8722049887879393e-04  2.5981930548819317e-04  2.5585608967038830e-04  1.7547117509787815e-03  1.8505779031995303e-03  4.3402256994080939e-05  4.0924443138934134e-05  1.0066075965746360e